                                                                                     
                             WELCOME TO ABACUS v3.0                                  
                                                                                     
               'Atomic-orbital Based Ab-initio Computation at UStc'                  
                                                                                     
                     Website: http://abacus.ustc.edu.cn/                             
                                                                                     
    Version: Parallel, in development
    Processor Number is 32
    Start Time is Wed May 10 15:23:34 2023
                                                                                     
 ------------------------------------------------------------------------------------

 READING GENERAL INFORMATION
                           global_out_dir = OUT.ABACUS/
                           global_in_card = INPUT
                               pseudo_dir = 
                              orbital_dir = 
                                    DRANK = 1
                                    DSIZE = 32
                                   DCOLOR = 1
                                    GRANK = 1
                                    GSIZE = 1
 The esolver type has been set to : ksdft_pw




 >>>>>>>>>>>>>>>>>>>>>>>>>>>>>>>>>>>>>>>>>>>>>>>>>>>>>>>>>>>>>>>>>>>>>>
 |                                                                    |
 | Reading atom information in unitcell:                              |
 | From the input file and the structure file we know the number of   |
 | different elments in this unitcell, then we list the detail        |
 | information for each element, especially the zeta and polar atomic |
 | orbital number for each element. The total atom number is counted. |
 | We calculate the nearest atom distance for each atom and show the  |
 | Cartesian and Direct coordinates for each atom. We list the file   |
 | address for atomic orbitals. The volume and the lattice vectors    |
 | in real and reciprocal space is also shown.                        |
 |                                                                    |
 <<<<<<<<<<<<<<<<<<<<<<<<<<<<<<<<<<<<<<<<<<<<<<<<<<<<<<<<<<<<<<<<<<<<<<




 READING UNITCELL INFORMATION
                                    ntype = 1
                 atom label for species 1 = Al
                  lattice constant (Bohr) = 1.88973
              lattice constant (Angstrom) = 1

 READING ATOM TYPE 1
                               atom label = Al
                      L=0, number of zeta = 1
                      L=1, number of zeta = 1
                      L=2, number of zeta = 1
             number of atom for this type = 4
                      start magnetization = FALSE
                      start magnetization = FALSE
                      start magnetization = FALSE
                      start magnetization = FALSE

                        TOTAL ATOM NUMBER = 4

 CARTESIAN COORDINATES ( UNIT = 1.88973 Bohr ).
         atom                   x                   y                   z                 mag                  vx                  vy                  vz
     tauc_Al1                   0                   0                   0                   0                   0                   0                   0
     tauc_Al2                   0               2.025               2.025                   0                   0                   0                   0
     tauc_Al3               2.025                   0               2.025                   0                   0                   0                   0
     tauc_Al4               2.025               2.025                   0                   0                   0                   0                   0


                          Volume (Bohr^3) = 448.29270461
                             Volume (A^3) = 66.4300456608

 Lattice vectors: (Cartesian coordinate: in unit of a_0)
                +4.05                  +0                  +0
                   +0               +4.05                  +0
                   +0                  +0               +4.05
 Reciprocal vectors: (Cartesian coordinate: in unit of 2 pi/a_0)
      +0.246913580247                  -0                  +0
                   +0     +0.246913580247                  -0
                   +0                  -0     +0.246913580247




 >>>>>>>>>>>>>>>>>>>>>>>>>>>>>>>>>>>>>>>>>>>>>>>>>>>>>>>>>>>>>>>>>>>>>>
 |                                                                    |
 | Reading pseudopotentials files:                                    |
 | The pseudopotential file is in UPF format. The 'NC' indicates that |
 | the type of pseudopotential is 'norm conserving'. Functional of    |
 | exchange and correlation is decided by 4 given parameters in UPF   |
 | file.  We also read in the 'core correction' if there exists.      |
 | Also we can read the valence electrons number and the maximal      |
 | angular momentum used in this pseudopotential. We also read in the |
 | trail wave function, trail atomic density and local-pseudopotential|
 | on logrithmic grid. The non-local pseudopotential projector is also|
 | read in if there is any.                                           |
 |                                                                    |
 <<<<<<<<<<<<<<<<<<<<<<<<<<<<<<<<<<<<<<<<<<<<<<<<<<<<<<<<<<<<<<<<<<<<<<




                PAO radial cut off (Bohr) = 15

 Read in pseudopotential file is pp_orb/Al_ONCV_PBE-1.0.upf
                     pseudopotential type = NC
          exchange-correlation functional = PBE
                 nonlocal core correction = 0
                        valence electrons = 11
                                     lmax = 1
                           number of zeta = 0
                     number of projectors = 4
                           L of projector = 0
                           L of projector = 0
                           L of projector = 1
                           L of projector = 1
     initial pseudo atomic orbital number = 0
                                   NLOCAL = 36

%%%%%%%%%%%%%%%%%%%%%%%%%%%%%%%%%%%%%%%%%%%%%%%%%%%%%%%%%%%%%%%%%%%%%%%
 Warning: number valence electrons > 3 for Al: [Ne] 3s2 3p1
 Please make sure the pseudopential file is what you need
%%%%%%%%%%%%%%%%%%%%%%%%%%%%%%%%%%%%%%%%%%%%%%%%%%%%%%%%%%%%%%%%%%%%%%%
                  




 >>>>>>>>>>>>>>>>>>>>>>>>>>>>>>>>>>>>>>>>>>>>>>>>>>>>>>>>>>>>>>>>>>>>>>
 |                                                                    |
 | Setup plane waves of charge/potential:                             |
 | Use the energy cutoff and the lattice vectors to generate the      |
 | dimensions of FFT grid. The number of FFT grid on each processor   |
 | is 'nrxx'. The number of plane wave basis in reciprocal space is   |
 | different for charege/potential and wave functions. We also set    |
 | the 'sticks' for the parallel of FFT. The number of plane waves    |
 | is 'npw' in each processor.                                        |
 <<<<<<<<<<<<<<<<<<<<<<<<<<<<<<<<<<<<<<<<<<<<<<<<<<<<<<<<<<<<<<<<<<<<<<





 SETUP THE PLANE WAVE BASIS
 energy cutoff for charge/potential (unit:Ry) = 240
          [fft grid for charge/potential] = 40, 40, 40
                      [fft grid division] = 1, 1, 1
      [big fft grid for charge/potential] = 40, 40, 40
                                     nbxx = 3200
                                     nrxx = 3200

 SETUP PLANE WAVES FOR CHARGE/POTENTIAL
                    number of plane waves = 28257
                         number of sticks = 1117

 PARALLEL PW FOR CHARGE/POTENTIAL
     PROC   COLUMNS(POT)             PW
        1             35            885
        2             35            885
        3             35            885
        4             35            885
        5             35            885
        6             35            885
        7             35            885
        8             35            885
        9             35            883
       10             35            883
       11             35            883
       12             35            883
       13             35            883
       14             35            883
       15             35            883
       16             35            883
       17             35            881
       18             35            881
       19             35            881
       20             35            881
       21             35            881
       22             35            881
       23             35            881
       24             35            881
       25             34            880
       26             34            880
       27             34            880
       28             35            885
       29             35            885
       30             35            885
       31             35            885
       32             35            885
 --------------- sum -------------------
       32           1117          28257
                            number of |g| = 212
                                  max |g| = 21.7040085353
                                  min |g| = 0.487730528883

 SETUP THE ELECTRONS NUMBER
            electron number of element Al = 11
      total electron number of element Al = 44
                           occupied bands = 22
                                   NBANDS = 32
 DONE : SETUP UNITCELL Time : 0.097124019061 (SEC)





 >>>>>>>>>>>>>>>>>>>>>>>>>>>>>>>>>>>>>>>>>>>>>>>>>>>>>>>>>>>>>>>>>>>>>>
 |                                                                    |
 | Doing symmetry analysis:                                           |
 | We calculate the norm of 3 vectors and the angles between them,    |
 | the type of Bravais lattice is given. We can judge if the unticell |
 | is a primitive cell. Finally we give the point group operation for |
 | this unitcell. We we use the point group operations to do symmetry |
 | analysis on given k-point mesh and the charge density.             |
 |                                                                    |
 <<<<<<<<<<<<<<<<<<<<<<<<<<<<<<<<<<<<<<<<<<<<<<<<<<<<<<<<<<<<<<<<<<<<<<




 LATTICE VECTORS: (CARTESIAN COORDINATE: IN UNIT OF A0)
                +4.05                  +0                  +0
                   +0               +4.05                  +0
                   +0                  +0               +4.05
                       right hand lattice = 1
                                   NORM_A = 4.05
                                   NORM_B = 4.05
                                   NORM_C = 4.05
                           ALPHA (DEGREE) = 90
                           BETA  (DEGREE) = 90
                           GAMMA (DEGREE) = 90
                             BRAVAIS TYPE = 1
                     BRAVAIS LATTICE NAME = 01. Cubic P (simple)
                                    IBRAV = 1
                                  BRAVAIS = SIMPLE CUBIC
                       LATTICE CONSTANT A = 17.6535407213
                                    ibrav = 1
                        ROTATION MATRICES = 48
              PURE POINT GROUP OPERATIONS = 48
                   SPACE GROUP OPERATIONS = 48
                              POINT GROUP = O_h
Warning : If the optimal symmetric configuration is not the input configuration, 
you have to manually change configurations, ABACUS would only calculate the input structure.
 DONE : SYMMETRY Time : 0.153580972356 (SEC)





 >>>>>>>>>>>>>>>>>>>>>>>>>>>>>>>>>>>>>>>>>>>>>>>>>>>>>>>>>>>>>>>>>>>>>>
 |                                                                    |
 | Setup K-points                                                     |
 | We setup the k-points according to input parameters.               |
 | The reduced k-points are set according to symmetry operations.     |
 | We treat the spin as another set of k-points.                      |
 |                                                                    |
 <<<<<<<<<<<<<<<<<<<<<<<<<<<<<<<<<<<<<<<<<<<<<<<<<<<<<<<<<<<<<<<<<<<<<<





 SETUP K-POINTS
                                    nspin = 1
                   Input type of k points = Monkhorst-Pack(Gamma)
                                   nkstot = 125
                               nkstot_ibz = 10
      IBZ             DirectX             DirectY             DirectZ              Weight    ibz2bz
        1                   0                   0                   0               0.008         0
        2                 0.8                   0                   0               0.048         1
        3                 0.6                   0                   0               0.048         2
        4                 0.8                 0.8                   0               0.096         6
        5                 0.8                 0.6                   0               0.192         7
        6                 0.6                 0.6                   0               0.096        12
        7                 0.8                 0.8                 0.8               0.064        31
        8                 0.8                 0.8                 0.6               0.192        32
        9                 0.6                 0.6                 0.8               0.192        37
       10                 0.6                 0.6                 0.6               0.064        62
                               nkstot now = 10

  KPOINTS            DIRECT_X            DIRECT_Y            DIRECT_Z              WEIGHT
        1                   0                   0                   0               0.008
        2                 0.8                   0                   0               0.048
        3                 0.6                   0                   0               0.048
        4                 0.8                 0.8                   0               0.096
        5                 0.8                 0.6                   0               0.192
        6                 0.6                 0.6                   0               0.096
        7                 0.8                 0.8                 0.8               0.064
        8                 0.8                 0.8                 0.6               0.192
        9                 0.6                 0.6                 0.8               0.192
       10                 0.6                 0.6                 0.6               0.064

           k-point number in this process = 10
       minimum distributed K point number = 10

  KPOINTS         CARTESIAN_X         CARTESIAN_Y         CARTESIAN_Z              WEIGHT
        1                   0                   0                   0               0.016
        2      0.197530864198                   0                   0               0.096
        3      0.148148148148                   0                   0               0.096
        4      0.197530864198      0.197530864198                   0               0.192
        5      0.197530864198      0.148148148148                   0               0.384
        6      0.148148148148      0.148148148148                   0               0.192
        7      0.197530864198      0.197530864198      0.197530864198               0.128
        8      0.197530864198      0.197530864198      0.148148148148               0.384
        9      0.148148148148      0.148148148148      0.197530864198               0.384
       10      0.148148148148      0.148148148148      0.148148148148               0.128

  KPOINTS            DIRECT_X            DIRECT_Y            DIRECT_Z              WEIGHT
        1                   0                   0                   0               0.016
        2                 0.8                   0                   0               0.096
        3                 0.6                   0                   0               0.096
        4                 0.8                 0.8                   0               0.192
        5                 0.8                 0.6                   0               0.384
        6                 0.6                 0.6                   0               0.192
        7                 0.8                 0.8                 0.8               0.128
        8                 0.8                 0.8                 0.6               0.384
        9                 0.6                 0.6                 0.8               0.384
       10                 0.6                 0.6                 0.6               0.128
 DONE : INIT K-POINTS Time : 0.164431795281 (SEC)





 >>>>>>>>>>>>>>>>>>>>>>>>>>>>>>>>>>>>>>>>>>>>>>>>>>>>>>>>>>>>>>>>>>>>>>
 |                                                                    |
 | Setup plane waves of wave functions:                               |
 | Use the energy cutoff and the lattice vectors to generate the      |
 | dimensions of FFT grid. The number of FFT grid on each processor   |
 | is 'nrxx'. The number of plane wave basis in reciprocal space is   |
 | different for charege/potential and wave functions. We also set    |
 | the 'sticks' for the parallel of FFT. The number of plane wave of  |
 | each k-point is 'npwk[ik]' in each processor                       |
 <<<<<<<<<<<<<<<<<<<<<<<<<<<<<<<<<<<<<<<<<<<<<<<<<<<<<<<<<<<<<<<<<<<<<<





 SETUP PLANE WAVES FOR WAVE FUNCTIONS
     energy cutoff for wavefunc (unit:Ry) = 60
            [fft grid for wave functions] = 40, 40, 40
                    number of plane waves = 5377
                         number of sticks = 373

 PARALLEL PW FOR WAVE FUNCTIONS
     PROC   COLUMNS(POT)             PW
        1             12            170
        2             12            168
        3             12            168
        4             12            168
        5             12            168
        6             12            168
        7             12            168
        8             12            168
        9             12            168
       10             11            167
       11             11            167
       12             11            167
       13             11            167
       14             11            167
       15             11            167
       16             12            170
       17             12            170
       18             12            170
       19             12            170
       20             12            168
       21             12            168
       22             12            168
       23             12            168
       24             12            168
       25             12            168
       26             12            170
       27             11            167
       28             11            167
       29             11            167
       30             11            167
       31             11            167
       32             12            168
 --------------- sum -------------------
       32            373           5377
 DONE : INIT PLANEWAVE Time : 0.166230822701 (SEC)

 DONE : INIT CHARGE Time : 0.167038656399 (SEC)

                                     npwx = 125

 SETUP NONLOCAL PSEUDOPOTENTIALS IN PLANE WAVE BASIS
 Al non-local projectors:
 projector 1 L=0
 projector 2 L=0
 projector 3 L=1
 projector 4 L=1
      TOTAL NUMBER OF NONLOCAL PROJECTORS = 32
 DONE : LOCAL POTENTIAL Time : 0.172477469063 (SEC)


 Init Non-Local PseudoPotential table : 
 Init Non-Local-Pseudopotential done.
 DONE : NON-LOCAL POTENTIAL Time : 0.187980509357 (SEC)

                                 init_chg = atomic
 DONE : INIT POTENTIAL Time : 0.211504 (SEC)


 Make real space PAO into reciprocal space.
       max mesh points in Pseudopotential = 601
     dq(describe PAO in reciprocal space) = 0.01
                                    max q = 934

 number of pseudo atomic orbitals for Al is 0
 DONE : INIT BASIS Time : 0.211903 (SEC)


 -------------------------------------------
 RELAX CELL : 1
 RELAX IONS : 1 (in total: 1)
 -------------------------------------------

 PW ALGORITHM --------------- ION=   1  ELEC=   1--------------------------------
 Notice: Threshold on eigenvalues was too large.
 hsover_error=0.44 > DRHO=0.0679572
 Origin diag_ethr = 0.01
 New    diag_ethr = 0.000154448

 Density error is 0.0683985731726
                          Error Threshold = 0.000154448085837

       Energy                       Rydberg                            eV
   E_KohnSham                 -553.65424756                -7532.85248872
     E_Harris                -553.678362532                -7533.18058974
      E_Fermi               +0.818977700621                +11.1427632634

 PW ALGORITHM --------------- ION=   1  ELEC=   2--------------------------------

 Density error is 0.0287015364794
                          Error Threshold = 0.000155451302665

       Energy                       Rydberg                            eV
   E_KohnSham                -553.637657948                -7532.62677546
     E_Harris                -553.656390015                -7532.88163831
      E_Fermi                 +0.8144519123                +11.0811867543

 PW ALGORITHM --------------- ION=   1  ELEC=   3--------------------------------

 Density error is 0.000531775839131
                          Error Threshold = 6.52307647258e-05

       Energy                       Rydberg                            eV
   E_KohnSham                -553.643427489                -7532.70527411
     E_Harris                -553.643120448                 -7532.7010966
      E_Fermi               +0.807501899441                +10.9866269782

 PW ALGORITHM --------------- ION=   1  ELEC=   4--------------------------------

 Density error is 0.000921227176381
                          Error Threshold = 1.20858145257e-06

       Energy                       Rydberg                            eV
   E_KohnSham                -553.643375528                -7532.70456713
     E_Harris                -553.643905675                -7532.71178015
      E_Fermi               +0.808549846585                +11.0008850306

 PW ALGORITHM --------------- ION=   1  ELEC=   5--------------------------------

 Density error is 9.21068141663e-05
                          Error Threshold = 1.20858145257e-06

       Energy                       Rydberg                            eV
   E_KohnSham                -553.643356264                -7532.70430503
     E_Harris                -553.643427635                -7532.70527608
      E_Fermi               +0.807612652703                +10.9881338537

 PW ALGORITHM --------------- ION=   1  ELEC=   6--------------------------------

 Density error is 2.83719762464e-05
                          Error Threshold = 2.0933366856e-07

       Energy                       Rydberg                            eV
   E_KohnSham                -553.643400551                -7532.70490759
     E_Harris                -553.643407801                -7532.70500623
      E_Fermi               +0.807337900677                +10.9843956606

 PW ALGORITHM --------------- ION=   1  ELEC=   7--------------------------------

 Density error is 1.63954132663e-05
                          Error Threshold = 6.44817641963e-08

       Energy                       Rydberg                            eV
   E_KohnSham                -553.643395792                -7532.70484284
     E_Harris                -553.643400987                -7532.70491352
      E_Fermi               +0.807355464787                +10.9846346325

 PW ALGORITHM --------------- ION=   1  ELEC=   8--------------------------------

 Density error is 6.84977096595e-06
                          Error Threshold = 3.72623028779e-08

       Energy                       Rydberg                            eV
   E_KohnSham                -553.643393706                -7532.70481445
     E_Harris                -553.643396229                -7532.70484879
      E_Fermi               +0.807360166378                 +10.984698601

 PW ALGORITHM --------------- ION=   1  ELEC=   9--------------------------------

 Density error is 2.0766550059e-06
                          Error Threshold = 1.55676612862e-08

       Energy                       Rydberg                            eV
   E_KohnSham                -553.643392884                -7532.70480328
     E_Harris                -553.643394088                -7532.70481965
      E_Fermi               +0.807354799402                +10.9846255795

 PW ALGORITHM --------------- ION=   1  ELEC=  10--------------------------------

 Density error is 5.29077235327e-08
                          Error Threshold = 4.71967046794e-09

       Energy                       Rydberg                            eV
   E_KohnSham                -553.643393361                -7532.70480976
     E_Harris                -553.643393388                -7532.70481013
       E_band                -144.145826706                -1961.20458612
   E_one_elec                -339.478432885                -4618.84103534
    E_Hartree                +138.381353002                +1882.77489778
         E_xc                -62.5998482153                -851.714629663
      E_Ewald                -289.946417172                -3944.92338823
      E_demet            -4.80908207802e-05            -0.000654309184107
      E_descf                            +0                            +0
        E_exx                            +0                            +0
      E_Fermi               +0.807363765881                +10.9847475747

 charge density convergence is achieved
 final etot is -7532.70480976 eV

 STATE ENERGY(eV) AND OCCUPATIONS    NSPIN == 1
 1/10 kpoint (Cartesian) = 0 0 0 (109 pws)
       1       -92.6013      0.0160000
       2       -92.5968      0.0160000
       3       -92.5968      0.0160000
       4       -92.5965      0.0160000
       5       -54.0932      0.0160000
       6       -54.0932      0.0160000
       7       -54.0932      0.0160000
       8       -54.0811      0.0160000
       9       -54.0811      0.0160000
      10       -54.0811      0.0160000
      11       -54.0809      0.0160000
      12       -54.0809      0.0160000
      13       -54.0809      0.0160000
      14       -54.0725      0.0160000
      15       -54.0725      0.0160000
      16       -54.0725      0.0160000
      17      -0.226575      0.0160000
      18        7.95348      0.0160000
      19        7.95348      0.0160000
      20        7.95348      0.0160000
      21        9.28061      0.0160000
      22        9.28061      0.0160000
      23        9.28064      0.0160000
      24        16.1916        0.00000
      25        16.1916        0.00000
      26        16.1916        0.00000
      27        16.4272        0.00000
      28        16.4272        0.00000
      29        16.4272        0.00000
      30        16.4273        0.00000
      31        16.4273        0.00000
      32        16.4273        0.00000

 2/10 kpoint (Cartesian) = 0.197531 0.00000 0.00000 (117 pws)
       1       -92.6005      0.0960000
       2       -92.5968      0.0960000
       3       -92.5959      0.0960000
       4       -92.5957      0.0960000
       5       -54.0920      0.0960000
       6       -54.0920      0.0960000
       7       -54.0912      0.0960000
       8       -54.0821      0.0960000
       9       -54.0821      0.0960000
      10       -54.0811      0.0960000
      11       -54.0809      0.0960000
      12       -54.0802      0.0960000
      13       -54.0802      0.0960000
      14       -54.0745      0.0960000
      15       -54.0733      0.0960000
      16       -54.0733      0.0960000
      17       0.134448      0.0960000
      18        5.42624      0.0960000
      19        8.28540      0.0960000
      20        8.28540      0.0960000
      21        9.62778      0.0960000
      22        9.62780      0.0960000
      23        12.4378        0.00000
      24        13.2891        0.00000
      25        13.2891        0.00000
      26        14.7090        0.00000
      27        14.7090        0.00000
      28        16.5483        0.00000
      29        16.7376        0.00000
      30        16.7376        0.00000
      31        20.0024        0.00000
      32        20.0024        0.00000

 3/10 kpoint (Cartesian) = 0.148148 0.00000 0.00000 (111 pws)
       1       -92.5992      0.0960000
       2       -92.5963      0.0960000
       3       -92.5962      0.0960000
       4       -92.5960      0.0960000
       5       -54.0890      0.0960000
       6       -54.0890      0.0960000
       7       -54.0861      0.0960000
       8       -54.0852      0.0960000
       9       -54.0852      0.0960000
      10       -54.0811      0.0960000
      11       -54.0810      0.0960000
      12       -54.0797      0.0960000
      13       -54.0780      0.0960000
      14       -54.0780      0.0960000
      15       -54.0754      0.0960000
      16       -54.0754      0.0960000
      17        1.21176      0.0960000
      18        2.98795      0.0960000
      19        9.28259      0.0960000
      20        9.28259      0.0960000
      21        10.6167      0.0960000
      22        10.6167      0.0960000
      23        10.9490      0.0929676
      24        10.9490      0.0929676
      25        12.5422        0.00000
      26        12.5422        0.00000
      27        16.7595        0.00000
      28        17.6139        0.00000
      29        17.6695        0.00000
      30        17.6695        0.00000
      31        19.2227        0.00000
      32        19.2227        0.00000

 4/10 kpoint (Cartesian) = 0.197531 0.197531 0.00000 (125 pws)
       1       -92.6013       0.192000
       2       -92.5967       0.192000
       3       -92.5966       0.192000
       4       -92.5951       0.192000
       5       -54.0909       0.192000
       6       -54.0907       0.192000
       7       -54.0907       0.192000
       8       -54.0841       0.192000
       9       -54.0814       0.192000
      10       -54.0812       0.192000
      11       -54.0800       0.192000
      12       -54.0799       0.192000
      13       -54.0798       0.192000
      14       -54.0772       0.192000
      15       -54.0742       0.192000
      16       -54.0730       0.192000
      17       0.494477       0.192000
      18        5.77252       0.192000
      19        5.77252       0.192000
      20        8.61754       0.192000
      21        9.93480       0.192000
      22        10.9534       0.182061
      23        12.7555        0.00000
      24        12.7555        0.00000
      25        13.6237        0.00000
      26        13.6238        0.00000
      27        15.0496        0.00000
      28        15.0496        0.00000
      29        17.0522        0.00000
      30        18.6164        0.00000
      31        18.6597        0.00000
      32        19.6761        0.00000

 5/10 kpoint (Cartesian) = 0.197531 0.148148 0.00000 (123 pws)
       1       -92.5987       0.384000
       2       -92.5973       0.384000
       3       -92.5966       0.384000
       4       -92.5964       0.384000
       5       -54.0891       0.384000
       6       -54.0879       0.384000
       7       -54.0870       0.384000
       8       -54.0868       0.384000
       9       -54.0843       0.384000
      10       -54.0820       0.384000
      11       -54.0795       0.384000
      12       -54.0793       0.384000
      13       -54.0791       0.384000
      14       -54.0774       0.384000
      15       -54.0764       0.384000
      16       -54.0746       0.384000
      17        1.56898       0.384000
      18        3.34066       0.384000
      19        6.80637       0.384000
      20        8.50648       0.384000
      21        9.61537       0.384000
      22        11.0673    3.41321e-06
      23        11.2827        0.00000
      24        12.6821        0.00000
      25        13.9147        0.00000
      26        14.6270        0.00000
      27        15.4746        0.00000
      28        15.9292        0.00000
      29        16.2955        0.00000
      30        17.1543        0.00000
      31        17.5621        0.00000
      32        21.3151        0.00000

 6/10 kpoint (Cartesian) = 0.148148 0.148148 0.00000 (117 pws)
       1       -92.5973       0.192000
       2       -92.5972       0.192000
       3       -92.5970       0.192000
       4       -92.5963       0.192000
       5       -54.0884       0.192000
       6       -54.0883       0.192000
       7       -54.0882       0.192000
       8       -54.0857       0.192000
       9       -54.0852       0.192000
      10       -54.0819       0.192000
      11       -54.0817       0.192000
      12       -54.0788       0.192000
      13       -54.0773       0.192000
      14       -54.0767       0.192000
      15       -54.0766       0.192000
      16       -54.0747       0.192000
      17        2.63524       0.192000
      18        4.39377       0.192000
      19        4.39377       0.192000
      20        6.13074       0.192000
      21        10.6151       0.192000
      22        12.0959        0.00000
      23        12.2846        0.00000
      24        12.2846        0.00000
      25        13.7664        0.00000
      26        13.7664        0.00000
      27        13.9559        0.00000
      28        15.4139        0.00000
      29        18.0757        0.00000
      30        18.0757        0.00000
      31        18.9308        0.00000
      32        20.8149        0.00000

 7/10 kpoint (Cartesian) = 0.197531 0.197531 0.197531 (124 pws)
       1       -92.5996       0.128000
       2       -92.5963       0.128000
       3       -92.5963       0.128000
       4       -92.5961       0.128000
       5       -54.0906       0.128000
       6       -54.0905       0.128000
       7       -54.0905       0.128000
       8       -54.0823       0.128000
       9       -54.0823       0.128000
      10       -54.0820       0.128000
      11       -54.0800       0.128000
      12       -54.0793       0.128000
      13       -54.0792       0.128000
      14       -54.0792       0.128000
      15       -54.0737       0.128000
      16       -54.0737       0.128000
      17       0.853575       0.128000
      18        6.11790       0.128000
      19        6.11790       0.128000
      20        6.11791       0.128000
      21        11.2087        0.00000
      22        11.2087        0.00000
      23        11.2087        0.00000
      24        13.1436        0.00000
      25        13.1436        0.00000
      26        13.1436        0.00000
      27        16.2080        0.00000
      28        17.3634        0.00000
      29        17.3634        0.00000
      30        17.3634        0.00000
      31        19.0006        0.00000
      32        19.0006        0.00000

 8/10 kpoint (Cartesian) = 0.197531 0.197531 0.148148 (125 pws)
       1       -92.5981       0.384000
       2       -92.5978       0.384000
       3       -92.5958       0.384000
       4       -92.5956       0.384000
       5       -54.0904       0.384000
       6       -54.0903       0.384000
       7       -54.0886       0.384000
       8       -54.0846       0.384000
       9       -54.0832       0.384000
      10       -54.0830       0.384000
      11       -54.0786       0.384000
      12       -54.0785       0.384000
      13       -54.0783       0.384000
      14       -54.0775       0.384000
      15       -54.0754       0.384000
      16       -54.0750       0.384000
      17        1.92529       0.384000
      18        3.69256       0.384000
      19        7.14599       0.384000
      20        7.14599       0.384000
      21        8.87397       0.384000
      22        8.87399       0.384000
      23        12.2312        0.00000
      24        13.9058        0.00000
      25        14.1168        0.00000
      26        14.1168        0.00000
      27        15.8173        0.00000
      28        15.8174        0.00000
      29        17.4193        0.00000
      30        18.2981        0.00000
      31        19.8564        0.00000
      32        19.9970        0.00000

 9/10 kpoint (Cartesian) = 0.148148 0.148148 0.197531 (119 pws)
       1       -92.5976       0.384000
       2       -92.5968       0.384000
       3       -92.5968       0.384000
       4       -92.5965       0.384000
       5       -54.0914       0.384000
       6       -54.0908       0.384000
       7       -54.0907       0.384000
       8       -54.0885       0.384000
       9       -54.0812       0.384000
      10       -54.0795       0.384000
      11       -54.0793       0.384000
      12       -54.0770       0.384000
      13       -54.0769       0.384000
      14       -54.0767       0.384000
      15       -54.0765       0.384000
      16       -54.0749       0.384000
      17        2.98893       0.384000
      18        4.74321       0.384000
      19        4.74322       0.384000
      20        6.47312       0.384000
      21        8.19455       0.384000
      22        9.89099       0.384000
      23        9.89100       0.384000
      24        11.5805        0.00000
      25        15.1341        0.00000
      26        16.7367        0.00000
      27        16.7367        0.00000
      28        18.3379        0.00000
      29        18.3989        0.00000
      30        18.3989        0.00000
      31        19.2442        0.00000
      32        21.1206        0.00000

 10/10 kpoint (Cartesian) = 0.148148 0.148148 0.148148 (117 pws)
       1       -92.5971       0.128000
       2       -92.5971       0.128000
       3       -92.5969       0.128000
       4       -92.5964       0.128000
       5       -54.0934       0.128000
       6       -54.0933       0.128000
       7       -54.0933       0.128000
       8       -54.0921       0.128000
       9       -54.0772       0.128000
      10       -54.0772       0.128000
      11       -54.0770       0.128000
      12       -54.0765       0.128000
      13       -54.0763       0.128000
      14       -54.0763       0.128000
      15       -54.0755       0.128000
      16       -54.0755       0.128000
      17        4.04494       0.128000
      18        5.78437       0.128000
      19        5.78437       0.128000
      20        5.78437       0.128000
      21        7.52431       0.128000
      22        7.52431       0.128000
      23        7.52434       0.128000
      24        9.23050       0.128000
      25        19.3067        0.00000
      26        19.3067        0.00000
      27        19.3067        0.00000
      28        20.1856        0.00000
      29        20.1856        0.00000
      30        20.1856        0.00000
      31        21.7517        0.00000
      32        21.7517        0.00000




 ><><><><><><><><><><><><><><><><><><><><><><

    TOTAL-FORCE (eV/Angstrom)

 ><><><><><><><><><><><><><><><><><><><><><><

     atom              x              y              z
      Al1              0              0              0
      Al2              0              0              0
      Al3              0              0              0
      Al4              0              0              0


 ><><><><><><><><><><><><><><><><><><><><><><

 TOTAL-STRESS (KBAR)

 ><><><><><><><><><><><><><><><><><><><><><><

      -19.246864      +0.000000      +0.000000
       +0.000000     -19.246864      -0.000000
       +0.000000      -0.000000     -19.246864
 TOTAL-PRESSURE: -19.246864 KBAR
 largest force is 0, no movement is possible.
 it may converged, otherwise no movement of atom is allowed.
 end of geometry optimization
                                    istep = +1
                         update iteration = +0

 CARTESIAN COORDINATES ( UNIT = +1.889726 Bohr ).
         atom                   x                   y                   z                 mag                  vx                  vy                  vz
     tauc_Al1     +0.000000000000     +0.000000000000     +0.000000000000     +0.000000000000     +0.000000000000     +0.000000000000     +0.000000000000
     tauc_Al2     +0.000000000000     +2.025000000000     +2.025000000000     +0.000000000000     +0.000000000000     +0.000000000000     +0.000000000000
     tauc_Al3     +2.025000000000     +0.000000000000     +2.025000000000     +0.000000000000     +0.000000000000     +0.000000000000     +0.000000000000
     tauc_Al4     +2.025000000000     +2.025000000000     +0.000000000000     +0.000000000000     +0.000000000000     +0.000000000000     +0.000000000000


 Lattice relaxation is not converged yet (threshold is +0.100000000000)

                          Volume (Bohr^3) = +447.278931546957
                            Volume (A^3)) = +66.279820171550

 Lattice vectors: (Cartesian coordinate: in unit of a_0)
      +4.046944793950     +0.000000000000     +0.000000000000
      +0.000000000000     +4.046944793950     -0.000000000000
      +0.000000000000     -0.000000000000     +4.046944793950
 Reciprocal vectors: (Cartesian coordinate: in unit of 2 pi/a_0)
      +0.247099985524     -0.000000000000     -0.000000000000
      -0.000000000000     +0.247099985524     +0.000000000000
      -0.000000000000     +0.000000000000     +0.247099985524
 DONE : SETUP UNITCELL Time : 5.983650467537 (SEC)





 >>>>>>>>>>>>>>>>>>>>>>>>>>>>>>>>>>>>>>>>>>>>>>>>>>>>>>>>>>>>>>>>>>>>>>
 |                                                                    |
 | Doing symmetry analysis:                                           |
 | We calculate the norm of 3 vectors and the angles between them,    |
 | the type of Bravais lattice is given. We can judge if the unticell |
 | is a primitive cell. Finally we give the point group operation for |
 | this unitcell. We we use the point group operations to do symmetry |
 | analysis on given k-point mesh and the charge density.             |
 |                                                                    |
 <<<<<<<<<<<<<<<<<<<<<<<<<<<<<<<<<<<<<<<<<<<<<<<<<<<<<<<<<<<<<<<<<<<<<<




 LATTICE VECTORS: (CARTESIAN COORDINATE: IN UNIT OF A0)
      +4.046944793950     +0.000000000000     +0.000000000000
      +0.000000000000     +4.046944793950     -0.000000000000
      +0.000000000000     -0.000000000000     +4.046944793950
                       right hand lattice = 1
                             BRAVAIS TYPE = 1
                     BRAVAIS LATTICE NAME = 01. Cubic P (simple)
                                    IBRAV = 1
                                  BRAVAIS = SIMPLE CUBIC
                       LATTICE CONSTANT A = 17.640223386915
                                    ibrav = 1
                        ROTATION MATRICES = 48
              PURE POINT GROUP OPERATIONS = 48
                   SPACE GROUP OPERATIONS = 48
                              POINT GROUP = O_h
Warning : If the optimal symmetric configuration is not the input configuration, 
you have to manually change configurations, ABACUS would only calculate the input structure.
 DONE : SYMMETRY Time : 6.039868152803 (SEC)


 SETUP K-POINTS
                                    nspin = 1

  KPOINTS            DIRECT_X            DIRECT_Y            DIRECT_Z              WEIGHT
        1      0.000000000000      0.000000000000      0.000000000000      0.016000000000
        2      0.800000000000      0.000000000000      0.000000000000      0.096000000000
        3      0.600000000000      0.000000000000      0.000000000000      0.096000000000
        4      0.800000000000      0.800000000000      0.000000000000      0.192000000000
        5      0.800000000000      0.600000000000      0.000000000000      0.384000000000
        6      0.600000000000      0.600000000000      0.000000000000      0.192000000000
        7      0.800000000000      0.800000000000      0.800000000000      0.128000000000
        8      0.800000000000      0.800000000000      0.600000000000      0.384000000000
        9      0.600000000000      0.600000000000      0.800000000000      0.384000000000
       10      0.600000000000      0.600000000000      0.600000000000      0.128000000000

           k-point number in this process = 10
       minimum distributed K point number = 10

  KPOINTS         CARTESIAN_X         CARTESIAN_Y         CARTESIAN_Z              WEIGHT
        1      0.000000000000      0.000000000000      0.000000000000      0.016000000000
        2      0.197679988419      0.000000000000      0.000000000000      0.096000000000
        3      0.148259991314      0.000000000000      0.000000000000      0.096000000000
        4      0.197679988419      0.197679988419      0.000000000000      0.192000000000
        5      0.197679988419      0.148259991314      0.000000000000      0.384000000000
        6      0.148259991314      0.148259991314      0.000000000000      0.192000000000
        7      0.197679988419      0.197679988419      0.197679988419      0.128000000000
        8      0.197679988419      0.197679988419      0.148259991314      0.384000000000
        9      0.148259991314      0.148259991314      0.197679988419      0.384000000000
       10      0.148259991314      0.148259991314      0.148259991314      0.128000000000

  KPOINTS            DIRECT_X            DIRECT_Y            DIRECT_Z              WEIGHT
        1      0.000000000000      0.000000000000      0.000000000000      0.016000000000
        2      0.800000000000      0.000000000000      0.000000000000      0.096000000000
        3      0.600000000000      0.000000000000      0.000000000000      0.096000000000
        4      0.800000000000      0.800000000000      0.000000000000      0.192000000000
        5      0.800000000000      0.600000000000      0.000000000000      0.384000000000
        6      0.600000000000      0.600000000000      0.000000000000      0.192000000000
        7      0.800000000000      0.800000000000      0.800000000000      0.128000000000
        8      0.800000000000      0.800000000000      0.600000000000      0.384000000000
        9      0.600000000000      0.600000000000      0.800000000000      0.384000000000
       10      0.600000000000      0.600000000000      0.600000000000      0.128000000000
 DONE : INIT K-POINTS Time : 6.042480899522 (SEC)

 Setup the Vl+Vh+Vxc according to new structure factor and new charge.
 DONE : LOCAL POTENTIAL Time : 6.044654370987 (SEC)


 Init Non-Local PseudoPotential table : 
 Init Non-Local-Pseudopotential done.
 DONE : NON-LOCAL POTENTIAL Time : 6.061201600208 (SEC)


 -------------------------------------------
 RELAX CELL : 2
 RELAX IONS : 1 (in total: 2)
 -------------------------------------------
                                     npwx = 125

 Make real space PAO into reciprocal space.
       max mesh points in Pseudopotential = 601
     dq(describe PAO in reciprocal space) = 0.010000
                                    max q = 934

 number of pseudo atomic orbitals for Al is 0

 PW ALGORITHM --------------- ION=   2  ELEC=   1--------------------------------
 Notice: Threshold on eigenvalues was too large.
 hsover_error=0.440000 > DRHO=0.000197
 Origin diag_ethr = 0.010000
 New    diag_ethr = 0.000000

 Density error is 0.000231062661
                          Error Threshold = 0.000000447955

       Energy                       Rydberg                            eV
   E_KohnSham             -553.643576317024            -7532.707299009375
     E_Harris             -553.643668627814            -7532.708554962106
      E_Fermi               +0.809902930424              +11.019294680669

 PW ALGORITHM --------------- ION=   2  ELEC=   2--------------------------------

 Density error is 0.000102642128
                          Error Threshold = 0.000000525142

       Energy                       Rydberg                            eV
   E_KohnSham             -553.643499262081            -7532.706250623094
     E_Harris             -553.643578598512            -7532.707330050621
      E_Fermi               +0.809795538300              +11.017833535851

 PW ALGORITHM --------------- ION=   2  ELEC=   3--------------------------------

 Density error is 0.000006520643
                          Error Threshold = 0.000000233278

       Energy                       Rydberg                            eV
   E_KohnSham             -553.643524362332            -7532.706592129538
     E_Harris             -553.643528014443            -7532.706641819055
      E_Fermi               +0.809586849234              +11.014994175456

 PW ALGORITHM --------------- ION=   2  ELEC=   4--------------------------------

 Density error is 0.000001473230
                          Error Threshold = 0.000000014820

       Energy                       Rydberg                            eV
   E_KohnSham             -553.643523632410            -7532.706582198436
     E_Harris             -553.643524803549            -7532.706598132603
      E_Fermi               +0.809616054946              +11.015391539540

 PW ALGORITHM --------------- ION=   2  ELEC=   5--------------------------------

 Density error is 0.000000141569
                          Error Threshold = 0.000000003348

       Energy                       Rydberg                            eV
   E_KohnSham             -553.643524388844            -7532.706592490245
     E_Harris             -553.643524290964            -7532.706591158524
      E_Fermi               +0.809649103832              +11.015841192703

 PW ALGORITHM --------------- ION=   2  ELEC=   6--------------------------------

 Density error is 0.000000283780
                          Error Threshold = 0.000000000322

       Energy                       Rydberg                            eV
   E_KohnSham             -553.643524217419            -7532.706590157883
     E_Harris             -553.643524397298            -7532.706592605265
      E_Fermi               +0.809657462422              +11.015954917161

 PW ALGORITHM --------------- ION=   2  ELEC=   7--------------------------------

 Density error is 0.000000038416
                          Error Threshold = 0.000000000322

       Energy                       Rydberg                            eV
   E_KohnSham             -553.643524199121            -7532.706589908937
     E_Harris             -553.643524229104            -7532.706590316874
       E_band             -144.044056243785            -1959.819927947947
   E_one_elec             -339.133886738898            -4614.153244535657
    E_Hartree             +138.260366501311            +1881.128791986157
         E_xc              -62.604646934865             -851.779919592393
      E_Ewald             -290.165309717099            -3947.901574087318
      E_demet               -0.000047309570               -0.000643679726
      E_descf               +0.000000000000               +0.000000000000
        E_exx               +0.000000000000               +0.000000000000
      E_Fermi               +0.809648874994              +11.015838079211

 charge density convergence is achieved
 final etot is -7532.706589908937 eV

 STATE ENERGY(eV) AND OCCUPATIONS    NSPIN == 1
 1/10 kpoint (Cartesian) = 0.00000 0.00000 0.00000 (109 pws)
       1     -92.565798       0.016000
       2     -92.561217       0.016000
       3     -92.561212       0.016000
       4     -92.561212       0.016000
       5     -54.059388       0.016000
       6     -54.059388       0.016000
       7     -54.059388       0.016000
       8     -54.047056       0.016000
       9     -54.047056       0.016000
      10     -54.047056       0.016000
      11     -54.047052       0.016000
      12     -54.047052       0.016000
      13     -54.047052       0.016000
      14     -54.038502       0.016000
      15     -54.038502       0.016000
      16     -54.038502       0.016000
      17      -0.212005       0.016000
      18       7.978134       0.016000
      19       7.978134       0.016000
      20       7.978134       0.016000
      21       9.310593       0.016000
      22       9.310593       0.016000
      23       9.310593       0.016000
      24      16.222494       0.000000
      25      16.222494       0.000000
      26      16.222494       0.000000
      27      16.467973       0.000000
      28      16.467973       0.000000
      29      16.467973       0.000000
      30      16.467974       0.000000
      31      16.467974       0.000000
      32      16.467974       0.000000

 2/10 kpoint (Cartesian) = 0.197680 0.000000 0.000000 (117 pws)
       1     -92.565081       0.096000
       2     -92.561328       0.096000
       3     -92.560375       0.096000
       4     -92.560372       0.096000
       5     -54.058209       0.096000
       6     -54.058209       0.096000
       7     -54.057425       0.096000
       8     -54.048230       0.096000
       9     -54.048230       0.096000
      10     -54.047082       0.096000
      11     -54.047078       0.096000
      12     -54.046236       0.096000
      13     -54.046236       0.096000
      14     -54.040528       0.096000
      15     -54.039318       0.096000
      16     -54.039318       0.096000
      17       0.149563       0.096000
      18       5.448830       0.096000
      19       8.310478       0.096000
      20       8.310478       0.096000
      21       9.658026       0.096000
      22       9.658026       0.096000
      23      12.470602       0.000000
      24      13.320602       0.000000
      25      13.320602       0.000000
      26      14.749187       0.000000
      27      14.749188       0.000000
      28      16.579702       0.000000
      29      16.778657       0.000000
      30      16.778657       0.000000
      31      20.043511       0.000000
      32      20.043511       0.000000

 3/10 kpoint (Cartesian) = 0.148260 0.000000 0.000000 (111 pws)
       1     -92.563701       0.096000
       2     -92.560861       0.096000
       3     -92.560629       0.096000
       4     -92.560625       0.096000
       5     -54.055123       0.096000
       6     -54.055123       0.096000
       7     -54.052253       0.096000
       8     -54.051312       0.096000
       9     -54.051312       0.096000
      10     -54.047124       0.096000
      11     -54.047120       0.096000
      12     -54.045799       0.096000
      13     -54.044097       0.096000
      14     -54.044097       0.096000
      15     -54.041454       0.096000
      16     -54.041454       0.096000
      17       1.228474       0.096000
      18       3.007218       0.096000
      19       9.308927       0.096000
      20       9.308927       0.096000
      21      10.646404       0.096000
      22      10.646404       0.096000
      23      10.977479       0.093782
      24      10.977479       0.093782
      25      12.581859       0.000000
      26      12.581860       0.000000
      27      16.797814       0.000000
      28      17.646940       0.000000
      29      17.711572       0.000000
      30      17.711572       0.000000
      31      19.266526       0.000000
      32      19.266526       0.000000

 4/10 kpoint (Cartesian) = 0.197680 0.197680 0.000000 (125 pws)
       1     -92.565791       0.192000
       2     -92.561179       0.192000
       3     -92.561175       0.192000
       4     -92.559614       0.192000
       5     -54.057064       0.192000
       6     -54.056869       0.192000
       7     -54.056868       0.192000
       8     -54.050190       0.192000
       9     -54.047380       0.192000
      10     -54.047376       0.192000
      11     -54.046020       0.192000
      12     -54.046018       0.192000
      13     -54.045942       0.192000
      14     -54.043280       0.192000
      15     -54.040168       0.192000
      16     -54.039024       0.192000
      17       0.510130       0.192000
      18       5.795563       0.192000
      19       5.795563       0.192000
      20       8.643041       0.192000
      21       9.963876       0.192000
      22      10.985961       0.180433
      23      12.788078       0.000000
      24      12.788079       0.000000
      25      13.655739       0.000000
      26      13.655740       0.000000
      27      15.090703       0.000000
      28      15.090703       0.000000
      29      17.093696       0.000000
      30      18.655436       0.000000
      31      18.701257       0.000000
      32      19.721249       0.000000

 5/10 kpoint (Cartesian) = 0.197680 0.148260 0.000000 (123 pws)
       1     -92.563232       0.384000
       2     -92.561869       0.384000
       3     -92.561070       0.384000
       4     -92.561013       0.384000
       5     -54.055273       0.384000
       6     -54.054069       0.384000
       7     -54.053176       0.384000
       8     -54.052887       0.384000
       9     -54.050369       0.384000
      10     -54.048138       0.384000
      11     -54.045566       0.384000
      12     -54.045371       0.384000
      13     -54.045148       0.384000
      14     -54.043398       0.384000
      15     -54.042394       0.384000
      16     -54.040573       0.384000
      17       1.586211       0.384000
      18       3.360424       0.384000
      19       6.830733       0.384000
      20       8.532695       0.384000
      21       9.642140       0.384000
      22      11.101037       0.000002
      23      11.311657       0.000000
      24      12.715215       0.000000
      25      13.954150       0.000000
      26      14.660446       0.000000
      27      15.513779       0.000000
      28      15.967958       0.000000
      29      16.331282       0.000000
      30      17.196182       0.000000
      31      17.604550       0.000000
      32      21.357893       0.000000

 6/10 kpoint (Cartesian) = 0.148260 0.148260 0.000000 (117 pws)
       1     -92.561719       0.192000
       2     -92.561716       0.192000
       3     -92.561568       0.192000
       4     -92.560881       0.192000
       5     -54.054451       0.192000
       6     -54.054451       0.192000
       7     -54.054446       0.192000
       8     -54.051817       0.192000
       9     -54.051310       0.192000
      10     -54.047905       0.192000
      11     -54.047901       0.192000
      12     -54.044857       0.192000
      13     -54.043326       0.192000
      14     -54.042687       0.192000
      15     -54.042683       0.192000
      16     -54.040684       0.192000
      17       2.654010       0.192000
      18       4.415000       0.192000
      19       4.415000       0.192000
      20       6.154269       0.192000
      21      10.643118       0.192000
      22      12.131047       0.000000
      23      12.314868       0.000000
      24      12.314869       0.000000
      25      13.803692       0.000000
      26      13.803692       0.000000
      27      13.988405       0.000000
      28      15.453654       0.000000
      29      18.118125       0.000000
      30      18.118125       0.000000
      31      18.974590       0.000000
      32      20.860199       0.000000

 7/10 kpoint (Cartesian) = 0.197680 0.197680 0.197680 (124 pws)
       1     -92.564121       0.128000
       2     -92.560794       0.128000
       3     -92.560788       0.128000
       4     -92.560788       0.128000
       5     -54.056734       0.128000
       6     -54.056734       0.128000
       7     -54.056731       0.128000
       8     -54.048280       0.128000
       9     -54.048273       0.128000
      10     -54.048273       0.128000
      11     -54.046066       0.128000
      12     -54.045281       0.128000
      13     -54.045281       0.128000
      14     -54.045278       0.128000
      15     -54.039683       0.128000
      16     -54.039683       0.128000
      17       0.869761       0.128000
      18       6.141385       0.128000
      19       6.141385       0.128000
      20       6.141385       0.128000
      21      11.238751       0.000000
      22      11.238752       0.000000
      23      11.238752       0.000000
      24      13.178327       0.000000
      25      13.178327       0.000000
      26      13.178327       0.000000
      27      16.245405       0.000000
      28      17.405243       0.000000
      29      17.405243       0.000000
      30      17.405244       0.000000
      31      19.042727       0.000000
      32      19.042727       0.000000

 8/10 kpoint (Cartesian) = 0.197680 0.197680 0.148260 (125 pws)
       1     -92.562634       0.384000
       2     -92.562306       0.384000
       3     -92.560259       0.384000
       4     -92.560255       0.384000
       5     -54.056504       0.384000
       6     -54.056502       0.384000
       7     -54.054720       0.384000
       8     -54.050743       0.384000
       9     -54.049186       0.384000
      10     -54.049181       0.384000
      11     -54.044640       0.384000
      12     -54.044638       0.384000
      13     -54.044381       0.384000
      14     -54.043549       0.384000
      15     -54.041411       0.384000
      16     -54.041002       0.384000
      17       1.943047       0.384000
      18       3.712822       0.384000
      19       7.170608       0.384000
      20       7.170608       0.384000
      21       8.901673       0.384000
      22       8.901673       0.384000
      23      12.263127       0.000000
      24      13.940088       0.000000
      25      14.151888       0.000000
      26      14.151888       0.000000
      27      15.857611       0.000000
      28      15.857612       0.000000
      29      17.458968       0.000000
      30      18.340958       0.000000
      31      19.901058       0.000000
      32      20.041001       0.000000

 9/10 kpoint (Cartesian) = 0.148260 0.148260 0.197680 (119 pws)
       1     -92.562144       0.384000
       2     -92.561289       0.384000
       3     -92.561285       0.384000
       4     -92.561161       0.384000
       5     -54.057620       0.384000
       6     -54.056927       0.384000
       7     -54.056924       0.384000
       8     -54.054650       0.384000
       9     -54.047297       0.384000
      10     -54.045474       0.384000
      11     -54.045471       0.384000
      12     -54.043072       0.384000
      13     -54.042915       0.384000
      14     -54.042662       0.384000
      15     -54.042658       0.384000
      16     -54.040935       0.384000
      17       3.008209       0.384000
      18       4.764912       0.384000
      19       4.764913       0.384000
      20       6.496932       0.384000
      21       8.221446       0.384000
      22       9.919913       0.384000
      23       9.919913       0.384000
      24      11.611685       0.000000
      25      15.171392       0.000000
      26      16.775890       0.000000
      27      16.775890       0.000000
      28      18.379976       0.000000
      29      18.441936       0.000000
      30      18.441936       0.000000
      31      19.288405       0.000000
      32      21.166426       0.000000

 10/10 kpoint (Cartesian) = 0.148260 0.148260 0.148260 (117 pws)
       1     -92.561592       0.128000
       2     -92.561586       0.128000
       3     -92.561586       0.128000
       4     -92.561024       0.128000
       5     -54.059507       0.128000
       6     -54.059507       0.128000
       7     -54.059505       0.128000
       8     -54.058282       0.128000
       9     -54.043181       0.128000
      10     -54.043175       0.128000
      11     -54.043175       0.128000
      12     -54.042411       0.128000
      13     -54.042411       0.128000
      14     -54.042408       0.128000
      15     -54.041593       0.128000
      16     -54.041593       0.128000
      17       4.065693       0.128000
      18       5.807312       0.128000
      19       5.807312       0.128000
      20       5.807312       0.128000
      21       7.550399       0.128000
      22       7.550400       0.128000
      23       7.550400       0.128000
      24       9.258679       0.128000
      25      19.349628       0.000000
      26      19.349628       0.000000
      27      19.349628       0.000000
      28      20.230918       0.000000
      29      20.230918       0.000000
      30      20.230919       0.000000
      31      21.799462       0.000000
      32      21.799462       0.000000




 ><><><><><><><><><><><><><><><><><><><><><><

    TOTAL-FORCE (eV/Angstrom)

 ><><><><><><><><><><><><><><><><><><><><><><

     atom              x              y              z
      Al1              0              0              0
      Al2              0              0              0
      Al3              0              0              0
      Al4              0              0              0


 ><><><><><><><><><><><><><><><><><><><><><><

 TOTAL-STRESS (KBAR)

 ><><><><><><><><><><><><><><><><><><><><><><

      -18.846956      +0.000000      +0.000000
       +0.000000     -18.846956      -0.000000
       +0.000000      -0.000000     -18.846956
 TOTAL-PRESSURE: -18.846956 KBAR
 largest force is 0, no movement is possible.
 it may converged, otherwise no movement of atom is allowed.
 end of geometry optimization
                                    istep = +1
                         update iteration = +0

 CARTESIAN COORDINATES ( UNIT = +1.889726 Bohr ).
         atom                   x                   y                   z                 mag                  vx                  vy                  vz
     tauc_Al1     +0.000000000000     +0.000000000000     +0.000000000000     +0.000000000000     +0.000000000000     +0.000000000000     +0.000000000000
     tauc_Al2     +0.000000000000     +2.023472396975     +2.023472396975     +0.000000000000     +0.000000000000     +0.000000000000     +0.000000000000
     tauc_Al3     +2.023472396975     -0.000000000000     +2.023472396975     +0.000000000000     +0.000000000000     +0.000000000000     +0.000000000000
     tauc_Al4     +2.023472396975     +2.023472396975     -0.000000000000     +0.000000000000     +0.000000000000     +0.000000000000     +0.000000000000


 Lattice relaxation is not converged yet (threshold is +0.100000000000)

                          Volume (Bohr^3) = +447.254338300518
                            Volume (A^3)) = +66.276175832779

 Lattice vectors: (Cartesian coordinate: in unit of a_0)
      +4.046870620000     +0.000000000000     +0.000000000000
      +0.000000000000     +4.046870620000     -0.000000000000
      +0.000000000000     -0.000000000000     +4.046870620000
 Reciprocal vectors: (Cartesian coordinate: in unit of 2 pi/a_0)
      +0.247104514550     -0.000000000000     -0.000000000000
      -0.000000000000     +0.247104514550     +0.000000000000
      -0.000000000000     +0.000000000000     +0.247104514550
 DONE : SETUP UNITCELL Time : 9.380627847984 (SEC)





 >>>>>>>>>>>>>>>>>>>>>>>>>>>>>>>>>>>>>>>>>>>>>>>>>>>>>>>>>>>>>>>>>>>>>>
 |                                                                    |
 | Doing symmetry analysis:                                           |
 | We calculate the norm of 3 vectors and the angles between them,    |
 | the type of Bravais lattice is given. We can judge if the unticell |
 | is a primitive cell. Finally we give the point group operation for |
 | this unitcell. We we use the point group operations to do symmetry |
 | analysis on given k-point mesh and the charge density.             |
 |                                                                    |
 <<<<<<<<<<<<<<<<<<<<<<<<<<<<<<<<<<<<<<<<<<<<<<<<<<<<<<<<<<<<<<<<<<<<<<




 LATTICE VECTORS: (CARTESIAN COORDINATE: IN UNIT OF A0)
      +4.046870620000     +0.000000000000     +0.000000000000
      +0.000000000000     +4.046870620000     -0.000000000000
      +0.000000000000     -0.000000000000     +4.046870620000
                       right hand lattice = 1
                             BRAVAIS TYPE = 1
                     BRAVAIS LATTICE NAME = 01. Cubic P (simple)
                                    IBRAV = 1
                                  BRAVAIS = SIMPLE CUBIC
                       LATTICE CONSTANT A = 17.639900070164
                                    ibrav = 1
                        ROTATION MATRICES = 48
              PURE POINT GROUP OPERATIONS = 48
                   SPACE GROUP OPERATIONS = 48
                              POINT GROUP = O_h
Warning : If the optimal symmetric configuration is not the input configuration, 
you have to manually change configurations, ABACUS would only calculate the input structure.
 DONE : SYMMETRY Time : 9.437015074870 (SEC)


 SETUP K-POINTS
                                    nspin = 1

  KPOINTS            DIRECT_X            DIRECT_Y            DIRECT_Z              WEIGHT
        1      0.000000000000      0.000000000000      0.000000000000      0.016000000000
        2      0.800000000000      0.000000000000      0.000000000000      0.096000000000
        3      0.600000000000      0.000000000000      0.000000000000      0.096000000000
        4      0.800000000000      0.800000000000      0.000000000000      0.192000000000
        5      0.800000000000      0.600000000000      0.000000000000      0.384000000000
        6      0.600000000000      0.600000000000      0.000000000000      0.192000000000
        7      0.800000000000      0.800000000000      0.800000000000      0.128000000000
        8      0.800000000000      0.800000000000      0.600000000000      0.384000000000
        9      0.600000000000      0.600000000000      0.800000000000      0.384000000000
       10      0.600000000000      0.600000000000      0.600000000000      0.128000000000

           k-point number in this process = 10
       minimum distributed K point number = 10

  KPOINTS         CARTESIAN_X         CARTESIAN_Y         CARTESIAN_Z              WEIGHT
        1      0.000000000000      0.000000000000      0.000000000000      0.016000000000
        2      0.197683611640      0.000000000000      0.000000000000      0.096000000000
        3      0.148262708730      0.000000000000      0.000000000000      0.096000000000
        4      0.197683611640      0.197683611640      0.000000000000      0.192000000000
        5      0.197683611640      0.148262708730      0.000000000000      0.384000000000
        6      0.148262708730      0.148262708730      0.000000000000      0.192000000000
        7      0.197683611640      0.197683611640      0.197683611640      0.128000000000
        8      0.197683611640      0.197683611640      0.148262708730      0.384000000000
        9      0.148262708730      0.148262708730      0.197683611640      0.384000000000
       10      0.148262708730      0.148262708730      0.148262708730      0.128000000000

  KPOINTS            DIRECT_X            DIRECT_Y            DIRECT_Z              WEIGHT
        1      0.000000000000      0.000000000000      0.000000000000      0.016000000000
        2      0.800000000000      0.000000000000      0.000000000000      0.096000000000
        3      0.600000000000      0.000000000000      0.000000000000      0.096000000000
        4      0.800000000000      0.800000000000      0.000000000000      0.192000000000
        5      0.800000000000      0.600000000000      0.000000000000      0.384000000000
        6      0.600000000000      0.600000000000      0.000000000000      0.192000000000
        7      0.800000000000      0.800000000000      0.800000000000      0.128000000000
        8      0.800000000000      0.800000000000      0.600000000000      0.384000000000
        9      0.600000000000      0.600000000000      0.800000000000      0.384000000000
       10      0.600000000000      0.600000000000      0.600000000000      0.128000000000
 DONE : INIT K-POINTS Time : 9.438167639011 (SEC)

 Setup the Vl+Vh+Vxc according to new structure factor and new charge.
 DONE : LOCAL POTENTIAL Time : 9.440603003308 (SEC)


 Init Non-Local PseudoPotential table : 
 Init Non-Local-Pseudopotential done.
 DONE : NON-LOCAL POTENTIAL Time : 9.458913291945 (SEC)


 -------------------------------------------
 RELAX CELL : 3
 RELAX IONS : 1 (in total: 3)
 -------------------------------------------
                                     npwx = 125

 Make real space PAO into reciprocal space.
       max mesh points in Pseudopotential = 601
     dq(describe PAO in reciprocal space) = 0.010000
                                    max q = 934

 number of pseudo atomic orbitals for Al is 0

 PW ALGORITHM --------------- ION=   3  ELEC=   1--------------------------------
 Notice: Threshold on eigenvalues was too large.
 hsover_error=0.440000 > DRHO=0.000000
 Origin diag_ethr = 0.010000
 New    diag_ethr = 0.000000

 Density error is 0.000000077934
                          Error Threshold = 0.000000000046

       Energy                       Rydberg                            eV
   E_KohnSham             -553.643527214105            -7532.706630929896
     E_Harris             -553.643527274481            -7532.706631751354
       E_band             -144.040247028938            -1959.768100921123
   E_one_elec             -339.125650135645            -4614.041179799250
    E_Hartree             +138.257595594803            +1881.091091869017
         E_xc              -62.604797315321             -851.781965623471
      E_Ewald             -290.170628075166            -3947.973934061028
      E_demet               -0.000047282775               -0.000643315163
      E_descf               +0.000000000000               +0.000000000000
        E_exx               +0.000000000000               +0.000000000000
      E_Fermi               +0.809705852390              +11.016613296454

 charge density convergence is achieved
 final etot is -7532.706630929896 eV

 STATE ENERGY(eV) AND OCCUPATIONS    NSPIN == 1
 1/10 kpoint (Cartesian) = 0.00000 0.00000 0.00000 (109 pws)
       1     -92.564101       0.016000
       2     -92.559520       0.016000
       3     -92.559520       0.016000
       4     -92.559509       0.016000
       5     -54.058093       0.016000
       6     -54.058093       0.016000
       7     -54.058093       0.016000
       8     -54.045759       0.016000
       9     -54.045759       0.016000
      10     -54.045759       0.016000
      11     -54.045752       0.016000
      12     -54.045752       0.016000
      13     -54.045752       0.016000
      14     -54.037202       0.016000
      15     -54.037202       0.016000
      16     -54.037202       0.016000
      17      -0.211642       0.016000
      18       7.978741       0.016000
      19       7.978741       0.016000
      20       7.978741       0.016000
      21       9.311338       0.016000
      22       9.311338       0.016000
      23       9.311338       0.016000
      24      16.223222       0.000000
      25      16.223222       0.000000
      26      16.223222       0.000000
      27      16.468992       0.000000
      28      16.468992       0.000000
      29      16.468992       0.000000
      30      16.468994       0.000000
      31      16.468994       0.000000
      32      16.468994       0.000000

 2/10 kpoint (Cartesian) = 0.197684 0.000000 0.000000 (117 pws)
       1     -92.563384       0.096000
       2     -92.559631       0.096000
       3     -92.558680       0.096000
       4     -92.558673       0.096000
       5     -54.056914       0.096000
       6     -54.056914       0.096000
       7     -54.056129       0.096000
       8     -54.046932       0.096000
       9     -54.046932       0.096000
      10     -54.045785       0.096000
      11     -54.045778       0.096000
      12     -54.044938       0.096000
      13     -54.044938       0.096000
      14     -54.039228       0.096000
      15     -54.038017       0.096000
      16     -54.038017       0.096000
      17       0.149938       0.096000
      18       5.449389       0.096000
      19       8.311095       0.096000
      20       8.311095       0.096000
      21       9.658777       0.096000
      22       9.658777       0.096000
      23      12.471411       0.000000
      24      13.321371       0.000000
      25      13.321371       0.000000
      26      14.750196       0.000000
      27      14.750197       0.000000
      28      16.580443       0.000000
      29      16.779684       0.000000
      30      16.779684       0.000000
      31      20.044515       0.000000
      32      20.044515       0.000000

 3/10 kpoint (Cartesian) = 0.148263 0.000000 0.000000 (111 pws)
       1     -92.562005       0.096000
       2     -92.559165       0.096000
       3     -92.558934       0.096000
       4     -92.558926       0.096000
       5     -54.053827       0.096000
       6     -54.053827       0.096000
       7     -54.050957       0.096000
       8     -54.050015       0.096000
       9     -54.050015       0.096000
      10     -54.045827       0.096000
      11     -54.045820       0.096000
      12     -54.044501       0.096000
      13     -54.042798       0.096000
      14     -54.042798       0.096000
      15     -54.040154       0.096000
      16     -54.040154       0.096000
      17       1.228889       0.096000
      18       3.007697       0.096000
      19       9.309573       0.096000
      20       9.309573       0.096000
      21      10.647135       0.096000
      22      10.647135       0.096000
      23      10.978177       0.093804
      24      10.978177       0.093804
      25      12.582862       0.000000
      26      12.582863       0.000000
      27      16.798756       0.000000
      28      17.647721       0.000000
      29      17.712622       0.000000
      30      17.712622       0.000000
      31      19.267615       0.000000
      32      19.267615       0.000000

 4/10 kpoint (Cartesian) = 0.197684 0.197684 0.000000 (125 pws)
       1     -92.564095       0.192000
       2     -92.559484       0.192000
       3     -92.559476       0.192000
       4     -92.557918       0.192000
       5     -54.055769       0.192000
       6     -54.055574       0.192000
       7     -54.055572       0.192000
       8     -54.048892       0.192000
       9     -54.046083       0.192000
      10     -54.046077       0.192000
      11     -54.044722       0.192000
      12     -54.044719       0.192000
      13     -54.044643       0.192000
      14     -54.041981       0.192000
      15     -54.038868       0.192000
      16     -54.037723       0.192000
      17       0.510519       0.192000
      18       5.796134       0.192000
      19       5.796134       0.192000
      20       8.643667       0.192000
      21       9.964593       0.192000
      22      10.986772       0.180391
      23      12.788880       0.000000
      24      12.788880       0.000000
      25      13.656520       0.000000
      26      13.656520       0.000000
      27      15.091737       0.000000
      28      15.091737       0.000000
      29      17.094732       0.000000
      30      18.656389       0.000000
      31      18.702276       0.000000
      32      19.722371       0.000000

 5/10 kpoint (Cartesian) = 0.197684 0.148263 0.000000 (123 pws)
       1     -92.561536       0.384000
       2     -92.560172       0.384000
       3     -92.559373       0.384000
       4     -92.559316       0.384000
       5     -54.053977       0.384000
       6     -54.052773       0.384000
       7     -54.051879       0.384000
       8     -54.051591       0.384000
       9     -54.049072       0.384000
      10     -54.046840       0.384000
      11     -54.044267       0.384000
      12     -54.044072       0.384000
      13     -54.043850       0.384000
      14     -54.042098       0.384000
      15     -54.041095       0.384000
      16     -54.039273       0.384000
      17       1.586639       0.384000
      18       3.360915       0.384000
      19       6.831335       0.384000
      20       8.533340       0.384000
      21       9.642797       0.384000
      22      11.101879       0.000002
      23      11.312365       0.000000
      24      12.716033       0.000000
[...]

 Density error is 0.000000031422
                          Error Threshold = 0.000000000284

       Energy                       Rydberg                            eV
   E_KohnSham             -553.644082474380            -7532.714185633502
     E_Harris             -553.644082497782            -7532.714185951905
       E_band             -143.179072460984            -1948.051219824264
   E_one_elec             -336.148465442370            -4573.534503972323
    E_Hartree             +137.234540243586            +1867.171709723072
         E_xc              -62.651443394677             -852.416618092064
      E_Ewald             -292.078672182133            -3973.934205951099
      E_demet               -0.000041698786               -0.000567341087
      E_descf               +0.000000000000               +0.000000000000
        E_exx               +0.000000000000               +0.000000000000
      E_Fermi               +0.830514747279              +11.299732836023

 charge density convergence is achieved
 final etot is -7532.714185633502 eV

 STATE ENERGY(eV) AND OCCUPATIONS    NSPIN == 1
 1/10 kpoint (Cartesian) = 0.00000 0.00000 0.00000 (109 pws)
       1     -92.273855       0.016000
       2     -92.268995       0.016000
       3     -92.268995       0.016000
       4     -92.268995       0.016000
       5     -53.772579       0.016000
       6     -53.772579       0.016000
       7     -53.772579       0.016000
       8     -53.759139       0.016000
       9     -53.759139       0.016000
      10     -53.759139       0.016000
      11     -53.759139       0.016000
      12     -53.759139       0.016000
      13     -53.759139       0.016000
      14     -53.749850       0.016000
      15     -53.749850       0.016000
      16     -53.749850       0.016000
      17      -0.083425       0.016000
      18       8.195359       0.016000
      19       8.195359       0.016000
      20       8.195359       0.016000
      21       9.573132       0.016000
      22       9.573132       0.016000
      23       9.573132       0.016000
      24      16.494442       0.000000
      25      16.494442       0.000000
      26      16.494442       0.000000
      27      16.825883       0.000000
      28      16.825883       0.000000
      29      16.825883       0.000000
      30      16.825883       0.000000
      31      16.825883       0.000000
      32      16.825883       0.000000

 2/10 kpoint (Cartesian) = 0.198983 0.000000 0.000000 (117 pws)
       1     -92.273147       0.096000
       2     -92.269182       0.096000
       3     -92.268264       0.096000
       4     -92.268264       0.096000
       5     -53.771294       0.096000
       6     -53.771294       0.096000
       7     -53.770444       0.096000
       8     -53.760421       0.096000
       9     -53.760421       0.096000
      10     -53.759168       0.096000
      11     -53.759168       0.096000
      12     -53.758251       0.096000
      13     -53.758251       0.096000
      14     -53.752056       0.096000
      15     -53.750736       0.096000
      16     -53.750736       0.096000
      17       0.282898       0.096000
      18       5.647507       0.096000
      19       8.531355       0.096000
      20       8.531355       0.096000
      21       9.922688       0.096000
      22       9.922688       0.096000
      23      12.757853       0.000000
      24      13.597638       0.000000
      25      13.597638       0.000000
      26      15.102802       0.000000
      27      15.102803       0.000000
      28      16.856481       0.000000
      29      17.139499       0.000000
      30      17.139499       0.000000
      31      20.405533       0.000000
      32      20.405533       0.000000

 3/10 kpoint (Cartesian) = 0.149238 0.000000 0.000000 (111 pws)
       1     -92.271731       0.096000
       2     -92.268985       0.096000
       3     -92.268490       0.096000
       4     -92.268490       0.096000
       5     -53.767931       0.096000
       6     -53.767931       0.096000
       7     -53.764818       0.096000
       8     -53.763778       0.096000
       9     -53.763778       0.096000
      10     -53.759216       0.096000
      11     -53.759215       0.096000
      12     -53.757795       0.096000
      13     -53.755927       0.096000
      14     -53.755927       0.096000
      15     -53.753057       0.096000
      16     -53.753057       0.096000
      17       1.375795       0.096000
      18       3.176911       0.096000
      19       9.540853       0.096000
      20       9.540853       0.096000
      21      10.905310       0.096000
      22      10.905310       0.096000
      23      11.228112       0.095991
      24      11.228112       0.095991
      25      12.931724       0.000000
      26      12.931724       0.000000
      27      17.132967       0.000000
      28      17.938202       0.000000
      29      18.081292       0.000000
      30      18.081292       0.000000
      31      19.651002       0.000000
      32      19.651002       0.000000

 4/10 kpoint (Cartesian) = 0.198983 0.198983 0.000000 (125 pws)
       1     -92.273696       0.192000
       2     -92.269043       0.192000
       3     -92.269042       0.192000
       4     -92.267607       0.192000
       5     -53.770047       0.192000
       6     -53.769837       0.192000
       7     -53.769837       0.192000
       8     -53.762557       0.192000
       9     -53.759495       0.192000
      10     -53.759494       0.192000
      11     -53.758015       0.192000
      12     -53.758015       0.192000
      13     -53.757929       0.192000
      14     -53.755052       0.192000
      15     -53.751660       0.192000
      16     -53.750414       0.192000
      17       0.648179       0.192000
      18       5.998221       0.192000
      19       5.998221       0.192000
      20       8.867592       0.192000
      21      10.217481       0.192000
      22      11.273110       0.176019
      23      13.073139       0.000000
      24      13.073139       0.000000
      25      13.936908       0.000000
      26      13.936909       0.000000
      27      15.452558       0.000000
      28      15.452558       0.000000
      29      17.458011       0.000000
      30      18.998668       0.000000
      31      19.066781       0.000000
      32      20.116846       0.000000

 5/10 kpoint (Cartesian) = 0.198983 0.149238 0.000000 (123 pws)
       1     -92.271266       0.384000
       2     -92.269840       0.384000
       3     -92.268904       0.384000
       4     -92.268880       0.384000
       5     -53.768098       0.384000
       6     -53.766784       0.384000
       7     -53.765821       0.384000
       8     -53.765497       0.384000
       9     -53.762753       0.384000
      10     -53.760340       0.384000
      11     -53.757522       0.384000
      12     -53.757309       0.384000
      13     -53.757072       0.384000
      14     -53.755166       0.384000
      15     -53.754079       0.384000
      16     -53.752097       0.384000
      17       1.738109       0.384000
      18       3.534472       0.384000
      19       7.044875       0.384000
      20       8.762746       0.384000
      21       9.877814       0.384000
      22      11.396915       0.000000
      23      11.566173       0.000000
      24      13.004335       0.000000
      25      14.302887       0.000000
      26      14.954027       0.000000
      27      15.859037       0.000000
      28      16.306577       0.000000
      29      16.645566       0.000000
      30      17.564970       0.000000
      31      17.976910       0.000000
      32      21.734034       0.000000

 6/10 kpoint (Cartesian) = 0.149238 0.149238 0.000000 (117 pws)
       1     -92.269672       0.192000
       2     -92.269635       0.192000
       3     -92.269634       0.192000
       4     -92.268813       0.192000
       5     -53.767206       0.192000
       6     -53.767205       0.192000
       7     -53.767205       0.192000
       8     -53.764345       0.192000
       9     -53.763780       0.192000
      10     -53.760071       0.192000
      11     -53.760070       0.192000
      12     -53.756757       0.192000
      13     -53.755083       0.192000
      14     -53.754388       0.192000
      15     -53.754387       0.192000
      16     -53.752213       0.192000
      17       2.819362       0.192000
      18       4.601806       0.192000
      19       4.601806       0.192000
      20       6.361127       0.192000
      21      10.890147       0.192000
      22      12.439340       0.000000
      23      12.581117       0.000000
      24      12.581117       0.000000
      25      14.130287       0.000000
      26      14.130287       0.000000
      27      14.274459       0.000000
      28      15.802576       0.000000
      29      18.490691       0.000000
      30      18.490691       0.000000
      31      19.359161       0.000000
      32      21.259129       0.000000

 7/10 kpoint (Cartesian) = 0.198983 0.198983 0.198983 (124 pws)
       1     -92.272168       0.128000
       2     -92.268705       0.128000
       3     -92.268704       0.128000
       4     -92.268704       0.128000
       5     -53.769689       0.128000
       6     -53.769689       0.128000
       7     -53.769689       0.128000
       8     -53.760474       0.128000
       9     -53.760473       0.128000
      10     -53.760473       0.128000
      11     -53.758085       0.128000
      12     -53.757210       0.128000
      13     -53.757210       0.128000
      14     -53.757210       0.128000
      15     -53.751130       0.128000
      16     -53.751130       0.128000
      17       1.012474       0.128000
      18       6.347876       0.128000
      19       6.347876       0.128000
      20       6.347876       0.128000
      21      11.502763       0.000000
      22      11.502763       0.000000
      23      11.502763       0.000000
      24      13.483419       0.000000
      25      13.483419       0.000000
      26      13.483419       0.000000
      27      16.573676       0.000000
      28      17.772534       0.000000
      29      17.772534       0.000000
      30      17.772534       0.000000
      31      19.413725       0.000000
      32      19.413725       0.000000

 8/10 kpoint (Cartesian) = 0.198983 0.198983 0.149238 (125 pws)
       1     -92.270698       0.384000
       2     -92.270203       0.384000
       3     -92.268238       0.384000
       4     -92.268237       0.384000
       5     -53.769438       0.384000
       6     -53.769438       0.384000
       7     -53.767503       0.384000
       8     -53.763177       0.384000
       9     -53.761463       0.384000
      10     -53.761463       0.384000
      11     -53.756512       0.384000
      12     -53.756512       0.384000
      13     -53.756237       0.384000
      14     -53.755329       0.384000
      15     -53.753007       0.384000
      16     -53.752562       0.384000
      17       2.099481       0.384000
      18       3.891174       0.384000
      19       7.386809       0.384000
      20       7.386809       0.384000
      21       9.145344       0.384000
      22       9.145344       0.384000
      23      12.543166       0.000000
      24      14.240949       0.000000
      25      14.459195       0.000000
      26      14.459196       0.000000
      27      16.212319       0.000000
      28      16.212319       0.000000
      29      17.806017       0.000000
      30      18.717328       0.000000
      31      20.292849       0.000000
      32      20.429392       0.000000

 9/10 kpoint (Cartesian) = 0.149238 0.149238 0.198983 (119 pws)
       1     -92.270152       0.384000
       2     -92.269258       0.384000
       3     -92.269257       0.384000
       4     -92.269082       0.384000
       5     -53.770658       0.384000
       6     -53.769904       0.384000
       7     -53.769903       0.384000
       8     -53.767430       0.384000
       9     -53.759410       0.384000
      10     -53.757424       0.384000
      11     -53.757424       0.384000
      12     -53.754808       0.384000
      13     -53.754642       0.384000
      14     -53.754361       0.384000
      15     -53.754361       0.384000
      16     -53.752486       0.384000
      17       3.177967       0.384000
      18       4.955800       0.384000
      19       4.955800       0.384000
      20       6.706027       0.384000
      21       8.458213       0.384000
      22      10.174164       0.384000
      23      10.174164       0.384000
      24      11.885835       0.000000
      25      15.498863       0.000000
      26      17.119334       0.000000
      27      17.119334       0.000000
      28      18.748843       0.000000
      29      18.820465       0.000000
      30      18.820465       0.000000
      31      19.676064       0.000000
      32      21.569954       0.000000

 10/10 kpoint (Cartesian) = 0.149238 0.149238 0.149238 (117 pws)
       1     -92.269521       0.128000
       2     -92.269520       0.128000
       3     -92.269520       0.128000
       4     -92.269107       0.128000
       5     -53.772716       0.128000
       6     -53.772716       0.128000
       7     -53.772716       0.128000
       8     -53.771385       0.128000
       9     -53.754924       0.128000
      10     -53.754923       0.128000
      11     -53.754923       0.128000
      12     -53.754088       0.128000
      13     -53.754088       0.128000
      14     -53.754088       0.128000
      15     -53.753201       0.128000
      16     -53.753201       0.128000
      17       4.248305       0.128000
      18       6.008813       0.128000
      19       6.008813       0.128000
      20       6.008813       0.128000
      21       7.780059       0.128000
      22       7.780059       0.128000
      23       7.780059       0.128000
      24       9.506466       0.128000
      25      19.725241       0.000000
      26      19.725241       0.000000
      27      19.725241       0.000000
      28      20.628236       0.000000
      29      20.628236       0.000000
      30      20.628236       0.000000
      31      22.216685       0.000000
      32      22.216685       0.000000




 ><><><><><><><><><><><><><><><><><><><><><><

    TOTAL-FORCE (eV/Angstrom)

 ><><><><><><><><><><><><><><><><><><><><><><

     atom              x              y              z
      Al1              0              0              0
      Al2              0              0              0
      Al3              0              0              0
      Al4              0              0              0


 ><><><><><><><><><><><><><><><><><><><><><><

 TOTAL-STRESS (KBAR)

 ><><><><><><><><><><><><><><><><><><><><><><

       +0.039352      -0.000000      -0.000000
       -0.000000      +0.039352      +0.000000
       -0.000000      +0.000000      +0.039352
 TOTAL-PRESSURE: +0.039352 KBAR
 largest force is 0, no movement is possible.
 it may converged, otherwise no movement of atom is allowed.
 end of geometry optimization
                                    istep = +1
                         update iteration = +0

 CARTESIAN COORDINATES ( UNIT = +1.889726 Bohr ).
         atom                   x                   y                   z                 mag                  vx                  vy                  vz
     tauc_Al1     +0.000000000000     +0.000000000000     +0.000000000000     +0.000000000000     +0.000000000000     +0.000000000000     +0.000000000000
     tauc_Al2     -0.000000000000     +2.010216940439     +2.010216940439     +0.000000000000     +0.000000000000     +0.000000000000     +0.000000000000
     tauc_Al3     +2.010216940439     -0.000000000000     +2.010216940439     +0.000000000000     +0.000000000000     +0.000000000000     +0.000000000000
     tauc_Al4     +2.010216940439     +2.010216940439     -0.000000000000     +0.000000000000     +0.000000000000     +0.000000000000     +0.000000000000


 Lattice relaxation is converged!

 Largest gradient is = +0.039351582517
 end of lattice optimization
                              stress_step = +46
                         update iteration = +1


 --------------------------------------------
 !FINAL_ETOT_IS -7532.7141856335019838 eV
 --------------------------------------------






  |CLASS_NAME---------|NAME---------------|TIME(Sec)-----|CALLS----|AVG------|PER%-------
                                      total      +98.28099       469     +0.21   +100.00%
                 Driver         driver_line      +98.23478         1    +98.23    +99.95%
               Symmetry           analy_sys      +48.83920        23     +2.12    +49.69%
             ppcell_vnl            init_vnl       +0.74200        46     +0.02     +0.75%
                 Sphbes    Spherical_Bessel       +0.50105    171856     +0.00     +0.51%
              Potential            init_pot       +0.21077        46     +0.00     +0.21%
               PW_Basis          recip2real       +0.28147      1409     +0.00     +0.29%
               PW_Basis    gathers_scatterp       +0.22666      1409     +0.00     +0.23%
              Potential            v_of_rho       +0.78750       208     +0.00     +0.80%
          XC_Functional                v_xc       +0.85639       254     +0.00     +0.87%
               PW_Basis          real2recip       +0.47557      2216     +0.00     +0.48%
               PW_Basis    gatherp_scatters       +0.37218      2216     +0.00     +0.38%
          ESolver_KS_PW                 Run      +91.49991        46     +1.99    +93.10%
               Symmetry        rho_symmetry       +1.13495       254     +0.00     +1.15%
              HSolverPW               solve      +89.08368       208     +0.43    +90.64%
            pp_cell_vnl              getvnl       +0.34237      3000     +0.00     +0.35%
                 WF_igk              get_sk       +0.11844     19400     +0.00     +0.12%
        DiagoIterAssist      diagH_subspace      +19.13911      2050     +0.01    +19.47%
             OperatorPW                hPsi      +73.67699    193479     +0.00    +74.97%
               Operator          EkineticPW       +0.13620    193479     +0.00     +0.14%
               Operator              VeffPW      +65.54497    193479     +0.00    +66.69%
             PW_Basis_K          recip2real      +36.50388    303413     +0.00    +37.14%
             PW_Basis_K    gathers_scatterp      +30.26803    303413     +0.00    +30.80%
             PW_Basis_K          real2recip      +32.44275    257029     +0.00    +33.01%
             PW_Basis_K    gatherp_scatters      +27.15100    257029     +0.00    +27.63%
               Operator          NonlocalPW       +7.69917    193479     +0.00     +7.83%
               Nonlocal     add_nonlocal_pp       +1.85726    193479     +0.00     +1.89%
        DiagoIterAssist        diagH_LAPACK       +0.94297      2050     +0.00     +0.96%
                DiagoCG           diag_once      +62.45329      2080     +0.03    +63.55%
            ElecStatePW            psiToRho       +7.02997       208     +0.03     +7.15%
                 Charge             rho_mpi       +0.79037       208     +0.00     +0.80%
                 Forces        cal_force_nl       +0.19296        46     +0.00     +0.20%
              Stress_PW          cal_stress       +1.48555        46     +0.03     +1.51%
            Stress_Func          stress_loc       +0.16627        46     +0.00     +0.17%
            Stress_Func            stres_nl       +1.06572        46     +0.02     +1.08%
 ----------------------------------------------------------------------------------------

 CLASS_NAME---------|NAME---------------|MEMORY(MB)--------
                                         +30.4012
 ----------------------------------------------------------

 Start  Time  : Wed May 10 15:23:34 2023
 Finish Time  : Wed May 10 15:25:12 2023
 Total  Time  : 0 h 1 mins 38 secs 
